n -t 0 -s 0 -S DLABEL -l "SRC0" -L ""
n -t 0 -s 1 -S DLABEL -l "SRC1" -L ""
n -t 0 -s 2 -S DLABEL -l "Dest" -L ""
V -t * -v 1.0a5 -a 0
A -t * -n 1 -p 0 -o 0x7fffffff -c 30 -a 1
A -t * -h 1 -m 1073741823 -s 0
c -t * -i 1 -n RED
c -t * -i 2 -n Blue
n -t * -a 0 -s 0 -S UP -v circle -c black -i black
n -t * -a 1 -s 1 -S UP -v circle -c black -i black
n -t * -a 2 -s 2 -S UP -v circle -c black -i black
l -t * -s 0 -d 2 -S UP -r 100000 -D 0.01 -c black -o right
l -t * -s 1 -d 2 -S UP -r 2000000 -D 0.01 -c black -o right-down
+ -t 0.1 -s 0 -d 2 -p cbr -e 1000 -c 1 -i 0 -a 1 -x {0.0 2.0 0 ------- null}
- -t 0.1 -s 0 -d 2 -p cbr -e 1000 -c 1 -i 0 -a 1 -x {0.0 2.0 0 ------- null}
h -t 0.1 -s 0 -d 2 -p cbr -e 1000 -c 1 -i 0 -a 1 -x {0.0 2.0 -1 ------- null}
+ -t 0.117857142857143 -s 0 -d 2 -p cbr -e 1000 -c 1 -i 1 -a 1 -x {0.0 2.0 1 ------- null}
+ -t 0.135714285714286 -s 0 -d 2 -p cbr -e 1000 -c 1 -i 2 -a 1 -x {0.0 2.0 2 ------- null}
+ -t 0.153571428571429 -s 0 -d 2 -p cbr -e 1000 -c 1 -i 3 -a 1 -x {0.0 2.0 3 ------- null}
+ -t 0.171428571428571 -s 0 -d 2 -p cbr -e 1000 -c 1 -i 4 -a 1 -x {0.0 2.0 4 ------- null}
- -t 0.18 -s 0 -d 2 -p cbr -e 1000 -c 1 -i 1 -a 1 -x {0.0 2.0 1 ------- null}
h -t 0.18 -s 0 -d 2 -p cbr -e 1000 -c 1 -i 1 -a 1 -x {0.0 2.0 -1 ------- null}
+ -t 0.189285714285714 -s 0 -d 2 -p cbr -e 1000 -c 1 -i 5 -a 1 -x {0.0 2.0 5 ------- null}
r -t 0.19 -s 0 -d 2 -p cbr -e 1000 -c 1 -i 0 -a 1 -x {0.0 2.0 0 ------- null}
+ -t 0.2 -s 1 -d 2 -p cbr -e 500 -c 2 -i 6 -a 2 -x {1.0 2.0 0 ------- null}
- -t 0.2 -s 1 -d 2 -p cbr -e 500 -c 2 -i 6 -a 2 -x {1.0 2.0 0 ------- null}
h -t 0.2 -s 1 -d 2 -p cbr -e 500 -c 2 -i 6 -a 2 -x {1.0 2.0 -1 ------- null}
+ -t 0.207142857142857 -s 0 -d 2 -p cbr -e 1000 -c 1 -i 7 -a 1 -x {0.0 2.0 6 ------- null}
+ -t 0.208928571428571 -s 1 -d 2 -p cbr -e 500 -c 2 -i 8 -a 2 -x {1.0 2.0 1 ------- null}
- -t 0.208928571428571 -s 1 -d 2 -p cbr -e 500 -c 2 -i 8 -a 2 -x {1.0 2.0 1 ------- null}
h -t 0.208928571428571 -s 1 -d 2 -p cbr -e 500 -c 2 -i 8 -a 2 -x {1.0 2.0 -1 ------- null}
r -t 0.212 -s 1 -d 2 -p cbr -e 500 -c 2 -i 6 -a 2 -x {1.0 2.0 0 ------- null}
+ -t 0.217857142857143 -s 1 -d 2 -p cbr -e 500 -c 2 -i 9 -a 2 -x {1.0 2.0 2 ------- null}
- -t 0.217857142857143 -s 1 -d 2 -p cbr -e 500 -c 2 -i 9 -a 2 -x {1.0 2.0 2 ------- null}
h -t 0.217857142857143 -s 1 -d 2 -p cbr -e 500 -c 2 -i 9 -a 2 -x {1.0 2.0 -1 ------- null}
r -t 0.220928571428571 -s 1 -d 2 -p cbr -e 500 -c 2 -i 8 -a 2 -x {1.0 2.0 1 ------- null}
+ -t 0.225 -s 0 -d 2 -p cbr -e 1000 -c 1 -i 10 -a 1 -x {0.0 2.0 7 ------- null}
+ -t 0.226785714285714 -s 1 -d 2 -p cbr -e 500 -c 2 -i 11 -a 2 -x {1.0 2.0 3 ------- null}
- -t 0.226785714285714 -s 1 -d 2 -p cbr -e 500 -c 2 -i 11 -a 2 -x {1.0 2.0 3 ------- null}
h -t 0.226785714285714 -s 1 -d 2 -p cbr -e 500 -c 2 -i 11 -a 2 -x {1.0 2.0 -1 ------- null}
r -t 0.229857142857143 -s 1 -d 2 -p cbr -e 500 -c 2 -i 9 -a 2 -x {1.0 2.0 2 ------- null}
+ -t 0.235714285714286 -s 1 -d 2 -p cbr -e 500 -c 2 -i 12 -a 2 -x {1.0 2.0 4 ------- null}
- -t 0.235714285714286 -s 1 -d 2 -p cbr -e 500 -c 2 -i 12 -a 2 -x {1.0 2.0 4 ------- null}
h -t 0.235714285714286 -s 1 -d 2 -p cbr -e 500 -c 2 -i 12 -a 2 -x {1.0 2.0 -1 ------- null}
r -t 0.238785714285714 -s 1 -d 2 -p cbr -e 500 -c 2 -i 11 -a 2 -x {1.0 2.0 3 ------- null}
+ -t 0.242857142857143 -s 0 -d 2 -p cbr -e 1000 -c 1 -i 13 -a 1 -x {0.0 2.0 8 ------- null}
+ -t 0.244642857142857 -s 1 -d 2 -p cbr -e 500 -c 2 -i 14 -a 2 -x {1.0 2.0 5 ------- null}
- -t 0.244642857142857 -s 1 -d 2 -p cbr -e 500 -c 2 -i 14 -a 2 -x {1.0 2.0 5 ------- null}
h -t 0.244642857142857 -s 1 -d 2 -p cbr -e 500 -c 2 -i 14 -a 2 -x {1.0 2.0 -1 ------- null}
r -t 0.247714285714286 -s 1 -d 2 -p cbr -e 500 -c 2 -i 12 -a 2 -x {1.0 2.0 4 ------- null}
+ -t 0.253571428571429 -s 1 -d 2 -p cbr -e 500 -c 2 -i 15 -a 2 -x {1.0 2.0 6 ------- null}
- -t 0.253571428571429 -s 1 -d 2 -p cbr -e 500 -c 2 -i 15 -a 2 -x {1.0 2.0 6 ------- null}
h -t 0.253571428571429 -s 1 -d 2 -p cbr -e 500 -c 2 -i 15 -a 2 -x {1.0 2.0 -1 ------- null}
r -t 0.256642857142857 -s 1 -d 2 -p cbr -e 500 -c 2 -i 14 -a 2 -x {1.0 2.0 5 ------- null}
- -t 0.26 -s 0 -d 2 -p cbr -e 1000 -c 1 -i 2 -a 1 -x {0.0 2.0 2 ------- null}
h -t 0.26 -s 0 -d 2 -p cbr -e 1000 -c 1 -i 2 -a 1 -x {0.0 2.0 -1 ------- null}
+ -t 0.260714285714286 -s 0 -d 2 -p cbr -e 1000 -c 1 -i 16 -a 1 -x {0.0 2.0 9 ------- null}
+ -t 0.2625 -s 1 -d 2 -p cbr -e 500 -c 2 -i 17 -a 2 -x {1.0 2.0 7 ------- null}
- -t 0.2625 -s 1 -d 2 -p cbr -e 500 -c 2 -i 17 -a 2 -x {1.0 2.0 7 ------- null}
h -t 0.2625 -s 1 -d 2 -p cbr -e 500 -c 2 -i 17 -a 2 -x {1.0 2.0 -1 ------- null}
r -t 0.265571428571429 -s 1 -d 2 -p cbr -e 500 -c 2 -i 15 -a 2 -x {1.0 2.0 6 ------- null}
r -t 0.27 -s 0 -d 2 -p cbr -e 1000 -c 1 -i 1 -a 1 -x {0.0 2.0 1 ------- null}
+ -t 0.271428571428571 -s 1 -d 2 -p cbr -e 500 -c 2 -i 18 -a 2 -x {1.0 2.0 8 ------- null}
- -t 0.271428571428571 -s 1 -d 2 -p cbr -e 500 -c 2 -i 18 -a 2 -x {1.0 2.0 8 ------- null}
h -t 0.271428571428571 -s 1 -d 2 -p cbr -e 500 -c 2 -i 18 -a 2 -x {1.0 2.0 -1 ------- null}
r -t 0.2745 -s 1 -d 2 -p cbr -e 500 -c 2 -i 17 -a 2 -x {1.0 2.0 7 ------- null}
+ -t 0.278571428571429 -s 0 -d 2 -p cbr -e 1000 -c 1 -i 19 -a 1 -x {0.0 2.0 10 ------- null}
+ -t 0.280357142857143 -s 1 -d 2 -p cbr -e 500 -c 2 -i 20 -a 2 -x {1.0 2.0 9 ------- null}
- -t 0.280357142857143 -s 1 -d 2 -p cbr -e 500 -c 2 -i 20 -a 2 -x {1.0 2.0 9 ------- null}
h -t 0.280357142857143 -s 1 -d 2 -p cbr -e 500 -c 2 -i 20 -a 2 -x {1.0 2.0 -1 ------- null}
r -t 0.283428571428571 -s 1 -d 2 -p cbr -e 500 -c 2 -i 18 -a 2 -x {1.0 2.0 8 ------- null}
+ -t 0.289285714285714 -s 1 -d 2 -p cbr -e 500 -c 2 -i 21 -a 2 -x {1.0 2.0 10 ------- null}
- -t 0.289285714285714 -s 1 -d 2 -p cbr -e 500 -c 2 -i 21 -a 2 -x {1.0 2.0 10 ------- null}
h -t 0.289285714285714 -s 1 -d 2 -p cbr -e 500 -c 2 -i 21 -a 2 -x {1.0 2.0 -1 ------- null}
r -t 0.292357142857143 -s 1 -d 2 -p cbr -e 500 -c 2 -i 20 -a 2 -x {1.0 2.0 9 ------- null}
+ -t 0.296428571428571 -s 0 -d 2 -p cbr -e 1000 -c 1 -i 22 -a 1 -x {0.0 2.0 11 ------- null}
+ -t 0.298214285714286 -s 1 -d 2 -p cbr -e 500 -c 2 -i 23 -a 2 -x {1.0 2.0 11 ------- null}
- -t 0.298214285714286 -s 1 -d 2 -p cbr -e 500 -c 2 -i 23 -a 2 -x {1.0 2.0 11 ------- null}
h -t 0.298214285714286 -s 1 -d 2 -p cbr -e 500 -c 2 -i 23 -a 2 -x {1.0 2.0 -1 ------- null}
r -t 0.301285714285714 -s 1 -d 2 -p cbr -e 500 -c 2 -i 21 -a 2 -x {1.0 2.0 10 ------- null}
+ -t 0.307142857142857 -s 1 -d 2 -p cbr -e 500 -c 2 -i 24 -a 2 -x {1.0 2.0 12 ------- null}
- -t 0.307142857142857 -s 1 -d 2 -p cbr -e 500 -c 2 -i 24 -a 2 -x {1.0 2.0 12 ------- null}
h -t 0.307142857142857 -s 1 -d 2 -p cbr -e 500 -c 2 -i 24 -a 2 -x {1.0 2.0 -1 ------- null}
r -t 0.310214285714286 -s 1 -d 2 -p cbr -e 500 -c 2 -i 23 -a 2 -x {1.0 2.0 11 ------- null}
+ -t 0.314285714285714 -s 0 -d 2 -p cbr -e 1000 -c 1 -i 25 -a 1 -x {0.0 2.0 12 ------- null}
+ -t 0.316071428571429 -s 1 -d 2 -p cbr -e 500 -c 2 -i 26 -a 2 -x {1.0 2.0 13 ------- null}
- -t 0.316071428571429 -s 1 -d 2 -p cbr -e 500 -c 2 -i 26 -a 2 -x {1.0 2.0 13 ------- null}
h -t 0.316071428571429 -s 1 -d 2 -p cbr -e 500 -c 2 -i 26 -a 2 -x {1.0 2.0 -1 ------- null}
r -t 0.319142857142857 -s 1 -d 2 -p cbr -e 500 -c 2 -i 24 -a 2 -x {1.0 2.0 12 ------- null}
+ -t 0.325 -s 1 -d 2 -p cbr -e 500 -c 2 -i 27 -a 2 -x {1.0 2.0 14 ------- null}
- -t 0.325 -s 1 -d 2 -p cbr -e 500 -c 2 -i 27 -a 2 -x {1.0 2.0 14 ------- null}
h -t 0.325 -s 1 -d 2 -p cbr -e 500 -c 2 -i 27 -a 2 -x {1.0 2.0 -1 ------- null}
r -t 0.328071428571429 -s 1 -d 2 -p cbr -e 500 -c 2 -i 26 -a 2 -x {1.0 2.0 13 ------- null}
+ -t 0.332142857142857 -s 0 -d 2 -p cbr -e 1000 -c 1 -i 28 -a 1 -x {0.0 2.0 13 ------- null}
+ -t 0.333928571428572 -s 1 -d 2 -p cbr -e 500 -c 2 -i 29 -a 2 -x {1.0 2.0 15 ------- null}
- -t 0.333928571428572 -s 1 -d 2 -p cbr -e 500 -c 2 -i 29 -a 2 -x {1.0 2.0 15 ------- null}
h -t 0.333928571428572 -s 1 -d 2 -p cbr -e 500 -c 2 -i 29 -a 2 -x {1.0 2.0 -1 ------- null}
r -t 0.337 -s 1 -d 2 -p cbr -e 500 -c 2 -i 27 -a 2 -x {1.0 2.0 14 ------- null}
- -t 0.34 -s 0 -d 2 -p cbr -e 1000 -c 1 -i 3 -a 1 -x {0.0 2.0 3 ------- null}
h -t 0.34 -s 0 -d 2 -p cbr -e 1000 -c 1 -i 3 -a 1 -x {0.0 2.0 -1 ------- null}
+ -t 0.342857142857143 -s 1 -d 2 -p cbr -e 500 -c 2 -i 30 -a 2 -x {1.0 2.0 16 ------- null}
- -t 0.342857142857143 -s 1 -d 2 -p cbr -e 500 -c 2 -i 30 -a 2 -x {1.0 2.0 16 ------- null}
h -t 0.342857142857143 -s 1 -d 2 -p cbr -e 500 -c 2 -i 30 -a 2 -x {1.0 2.0 -1 ------- null}
r -t 0.345928571428572 -s 1 -d 2 -p cbr -e 500 -c 2 -i 29 -a 2 -x {1.0 2.0 15 ------- null}
+ -t 0.35 -s 0 -d 2 -p cbr -e 1000 -c 1 -i 31 -a 1 -x {0.0 2.0 14 ------- null}
r -t 0.35 -s 0 -d 2 -p cbr -e 1000 -c 1 -i 2 -a 1 -x {0.0 2.0 2 ------- null}
+ -t 0.351785714285715 -s 1 -d 2 -p cbr -e 500 -c 2 -i 32 -a 2 -x {1.0 2.0 17 ------- null}
- -t 0.351785714285715 -s 1 -d 2 -p cbr -e 500 -c 2 -i 32 -a 2 -x {1.0 2.0 17 ------- null}
h -t 0.351785714285715 -s 1 -d 2 -p cbr -e 500 -c 2 -i 32 -a 2 -x {1.0 2.0 -1 ------- null}
r -t 0.354857142857143 -s 1 -d 2 -p cbr -e 500 -c 2 -i 30 -a 2 -x {1.0 2.0 16 ------- null}
+ -t 0.360714285714286 -s 1 -d 2 -p cbr -e 500 -c 2 -i 33 -a 2 -x {1.0 2.0 18 ------- null}
- -t 0.360714285714286 -s 1 -d 2 -p cbr -e 500 -c 2 -i 33 -a 2 -x {1.0 2.0 18 ------- null}
h -t 0.360714285714286 -s 1 -d 2 -p cbr -e 500 -c 2 -i 33 -a 2 -x {1.0 2.0 -1 ------- null}
r -t 0.363785714285715 -s 1 -d 2 -p cbr -e 500 -c 2 -i 32 -a 2 -x {1.0 2.0 17 ------- null}
+ -t 0.367857142857143 -s 0 -d 2 -p cbr -e 1000 -c 1 -i 34 -a 1 -x {0.0 2.0 15 ------- null}
+ -t 0.369642857142857 -s 1 -d 2 -p cbr -e 500 -c 2 -i 35 -a 2 -x {1.0 2.0 19 ------- null}
- -t 0.369642857142857 -s 1 -d 2 -p cbr -e 500 -c 2 -i 35 -a 2 -x {1.0 2.0 19 ------- null}
h -t 0.369642857142857 -s 1 -d 2 -p cbr -e 500 -c 2 -i 35 -a 2 -x {1.0 2.0 -1 ------- null}
r -t 0.372714285714286 -s 1 -d 2 -p cbr -e 500 -c 2 -i 33 -a 2 -x {1.0 2.0 18 ------- null}
+ -t 0.378571428571429 -s 1 -d 2 -p cbr -e 500 -c 2 -i 36 -a 2 -x {1.0 2.0 20 ------- null}
- -t 0.378571428571429 -s 1 -d 2 -p cbr -e 500 -c 2 -i 36 -a 2 -x {1.0 2.0 20 ------- null}
h -t 0.378571428571429 -s 1 -d 2 -p cbr -e 500 -c 2 -i 36 -a 2 -x {1.0 2.0 -1 ------- null}
r -t 0.381642857142857 -s 1 -d 2 -p cbr -e 500 -c 2 -i 35 -a 2 -x {1.0 2.0 19 ------- null}
+ -t 0.385714285714286 -s 0 -d 2 -p cbr -e 1000 -c 1 -i 37 -a 1 -x {0.0 2.0 16 ------- null}
+ -t 0.3875 -s 1 -d 2 -p cbr -e 500 -c 2 -i 38 -a 2 -x {1.0 2.0 21 ------- null}
- -t 0.3875 -s 1 -d 2 -p cbr -e 500 -c 2 -i 38 -a 2 -x {1.0 2.0 21 ------- null}
h -t 0.3875 -s 1 -d 2 -p cbr -e 500 -c 2 -i 38 -a 2 -x {1.0 2.0 -1 ------- null}
r -t 0.390571428571429 -s 1 -d 2 -p cbr -e 500 -c 2 -i 36 -a 2 -x {1.0 2.0 20 ------- null}
+ -t 0.396428571428572 -s 1 -d 2 -p cbr -e 500 -c 2 -i 39 -a 2 -x {1.0 2.0 22 ------- null}
- -t 0.396428571428572 -s 1 -d 2 -p cbr -e 500 -c 2 -i 39 -a 2 -x {1.0 2.0 22 ------- null}
h -t 0.396428571428572 -s 1 -d 2 -p cbr -e 500 -c 2 -i 39 -a 2 -x {1.0 2.0 -1 ------- null}
r -t 0.3995 -s 1 -d 2 -p cbr -e 500 -c 2 -i 38 -a 2 -x {1.0 2.0 21 ------- null}
+ -t 0.403571428571428 -s 0 -d 2 -p cbr -e 1000 -c 1 -i 40 -a 1 -x {0.0 2.0 17 ------- null}
+ -t 0.405357142857143 -s 1 -d 2 -p cbr -e 500 -c 2 -i 41 -a 2 -x {1.0 2.0 23 ------- null}
- -t 0.405357142857143 -s 1 -d 2 -p cbr -e 500 -c 2 -i 41 -a 2 -x {1.0 2.0 23 ------- null}
h -t 0.405357142857143 -s 1 -d 2 -p cbr -e 500 -c 2 -i 41 -a 2 -x {1.0 2.0 -1 ------- null}
r -t 0.408428571428572 -s 1 -d 2 -p cbr -e 500 -c 2 -i 39 -a 2 -x {1.0 2.0 22 ------- null}
+ -t 0.414285714285715 -s 1 -d 2 -p cbr -e 500 -c 2 -i 42 -a 2 -x {1.0 2.0 24 ------- null}
- -t 0.414285714285715 -s 1 -d 2 -p cbr -e 500 -c 2 -i 42 -a 2 -x {1.0 2.0 24 ------- null}
h -t 0.414285714285715 -s 1 -d 2 -p cbr -e 500 -c 2 -i 42 -a 2 -x {1.0 2.0 -1 ------- null}
r -t 0.417357142857143 -s 1 -d 2 -p cbr -e 500 -c 2 -i 41 -a 2 -x {1.0 2.0 23 ------- null}
- -t 0.42 -s 0 -d 2 -p cbr -e 1000 -c 1 -i 4 -a 1 -x {0.0 2.0 4 ------- null}
h -t 0.42 -s 0 -d 2 -p cbr -e 1000 -c 1 -i 4 -a 1 -x {0.0 2.0 -1 ------- null}
+ -t 0.421428571428571 -s 0 -d 2 -p cbr -e 1000 -c 1 -i 43 -a 1 -x {0.0 2.0 18 ------- null}
+ -t 0.423214285714286 -s 1 -d 2 -p cbr -e 500 -c 2 -i 44 -a 2 -x {1.0 2.0 25 ------- null}
- -t 0.423214285714286 -s 1 -d 2 -p cbr -e 500 -c 2 -i 44 -a 2 -x {1.0 2.0 25 ------- null}
h -t 0.423214285714286 -s 1 -d 2 -p cbr -e 500 -c 2 -i 44 -a 2 -x {1.0 2.0 -1 ------- null}
r -t 0.426285714285715 -s 1 -d 2 -p cbr -e 500 -c 2 -i 42 -a 2 -x {1.0 2.0 24 ------- null}
r -t 0.43 -s 0 -d 2 -p cbr -e 1000 -c 1 -i 3 -a 1 -x {0.0 2.0 3 ------- null}
+ -t 0.432142857142858 -s 1 -d 2 -p cbr -e 500 -c 2 -i 45 -a 2 -x {1.0 2.0 26 ------- null}
- -t 0.432142857142858 -s 1 -d 2 -p cbr -e 500 -c 2 -i 45 -a 2 -x {1.0 2.0 26 ------- null}
h -t 0.432142857142858 -s 1 -d 2 -p cbr -e 500 -c 2 -i 45 -a 2 -x {1.0 2.0 -1 ------- null}
r -t 0.435214285714286 -s 1 -d 2 -p cbr -e 500 -c 2 -i 44 -a 2 -x {1.0 2.0 25 ------- null}
+ -t 0.439285714285714 -s 0 -d 2 -p cbr -e 1000 -c 1 -i 46 -a 1 -x {0.0 2.0 19 ------- null}
+ -t 0.441071428571429 -s 1 -d 2 -p cbr -e 500 -c 2 -i 47 -a 2 -x {1.0 2.0 27 ------- null}
- -t 0.441071428571429 -s 1 -d 2 -p cbr -e 500 -c 2 -i 47 -a 2 -x {1.0 2.0 27 ------- null}
h -t 0.441071428571429 -s 1 -d 2 -p cbr -e 500 -c 2 -i 47 -a 2 -x {1.0 2.0 -1 ------- null}
r -t 0.444142857142858 -s 1 -d 2 -p cbr -e 500 -c 2 -i 45 -a 2 -x {1.0 2.0 26 ------- null}
+ -t 0.450000000000001 -s 1 -d 2 -p cbr -e 500 -c 2 -i 48 -a 2 -x {1.0 2.0 28 ------- null}
- -t 0.450000000000001 -s 1 -d 2 -p cbr -e 500 -c 2 -i 48 -a 2 -x {1.0 2.0 28 ------- null}
h -t 0.450000000000001 -s 1 -d 2 -p cbr -e 500 -c 2 -i 48 -a 2 -x {1.0 2.0 -1 ------- null}
r -t 0.453071428571429 -s 1 -d 2 -p cbr -e 500 -c 2 -i 47 -a 2 -x {1.0 2.0 27 ------- null}
+ -t 0.457142857142857 -s 0 -d 2 -p cbr -e 1000 -c 1 -i 49 -a 1 -x {0.0 2.0 20 ------- null}
+ -t 0.458928571428572 -s 1 -d 2 -p cbr -e 500 -c 2 -i 50 -a 2 -x {1.0 2.0 29 ------- null}
- -t 0.458928571428572 -s 1 -d 2 -p cbr -e 500 -c 2 -i 50 -a 2 -x {1.0 2.0 29 ------- null}
h -t 0.458928571428572 -s 1 -d 2 -p cbr -e 500 -c 2 -i 50 -a 2 -x {1.0 2.0 -1 ------- null}
r -t 0.462000000000001 -s 1 -d 2 -p cbr -e 500 -c 2 -i 48 -a 2 -x {1.0 2.0 28 ------- null}
+ -t 0.467857142857143 -s 1 -d 2 -p cbr -e 500 -c 2 -i 51 -a 2 -x {1.0 2.0 30 ------- null}
- -t 0.467857142857143 -s 1 -d 2 -p cbr -e 500 -c 2 -i 51 -a 2 -x {1.0 2.0 30 ------- null}
h -t 0.467857142857143 -s 1 -d 2 -p cbr -e 500 -c 2 -i 51 -a 2 -x {1.0 2.0 -1 ------- null}
r -t 0.470928571428572 -s 1 -d 2 -p cbr -e 500 -c 2 -i 50 -a 2 -x {1.0 2.0 29 ------- null}
+ -t 0.475 -s 0 -d 2 -p cbr -e 1000 -c 1 -i 52 -a 1 -x {0.0 2.0 21 ------- null}
+ -t 0.476785714285715 -s 1 -d 2 -p cbr -e 500 -c 2 -i 53 -a 2 -x {1.0 2.0 31 ------- null}
- -t 0.476785714285715 -s 1 -d 2 -p cbr -e 500 -c 2 -i 53 -a 2 -x {1.0 2.0 31 ------- null}
h -t 0.476785714285715 -s 1 -d 2 -p cbr -e 500 -c 2 -i 53 -a 2 -x {1.0 2.0 -1 ------- null}
r -t 0.479857142857143 -s 1 -d 2 -p cbr -e 500 -c 2 -i 51 -a 2 -x {1.0 2.0 30 ------- null}
+ -t 0.485714285714286 -s 1 -d 2 -p cbr -e 500 -c 2 -i 54 -a 2 -x {1.0 2.0 32 ------- null}
- -t 0.485714285714286 -s 1 -d 2 -p cbr -e 500 -c 2 -i 54 -a 2 -x {1.0 2.0 32 ------- null}
h -t 0.485714285714286 -s 1 -d 2 -p cbr -e 500 -c 2 -i 54 -a 2 -x {1.0 2.0 -1 ------- null}
r -t 0.488785714285715 -s 1 -d 2 -p cbr -e 500 -c 2 -i 53 -a 2 -x {1.0 2.0 31 ------- null}
+ -t 0.492857142857143 -s 0 -d 2 -p cbr -e 1000 -c 1 -i 55 -a 1 -x {0.0 2.0 22 ------- null}
+ -t 0.494642857142858 -s 1 -d 2 -p cbr -e 500 -c 2 -i 56 -a 2 -x {1.0 2.0 33 ------- null}
- -t 0.494642857142858 -s 1 -d 2 -p cbr -e 500 -c 2 -i 56 -a 2 -x {1.0 2.0 33 ------- null}
h -t 0.494642857142858 -s 1 -d 2 -p cbr -e 500 -c 2 -i 56 -a 2 -x {1.0 2.0 -1 ------- null}
r -t 0.497714285714286 -s 1 -d 2 -p cbr -e 500 -c 2 -i 54 -a 2 -x {1.0 2.0 32 ------- null}
- -t 0.5 -s 0 -d 2 -p cbr -e 1000 -c 1 -i 5 -a 1 -x {0.0 2.0 5 ------- null}
h -t 0.5 -s 0 -d 2 -p cbr -e 1000 -c 1 -i 5 -a 1 -x {0.0 2.0 -1 ------- null}
+ -t 0.503571428571429 -s 1 -d 2 -p cbr -e 500 -c 2 -i 57 -a 2 -x {1.0 2.0 34 ------- null}
- -t 0.503571428571429 -s 1 -d 2 -p cbr -e 500 -c 2 -i 57 -a 2 -x {1.0 2.0 34 ------- null}
h -t 0.503571428571429 -s 1 -d 2 -p cbr -e 500 -c 2 -i 57 -a 2 -x {1.0 2.0 -1 ------- null}
r -t 0.506642857142858 -s 1 -d 2 -p cbr -e 500 -c 2 -i 56 -a 2 -x {1.0 2.0 33 ------- null}
r -t 0.51 -s 0 -d 2 -p cbr -e 1000 -c 1 -i 4 -a 1 -x {0.0 2.0 4 ------- null}
+ -t 0.510714285714286 -s 0 -d 2 -p cbr -e 1000 -c 1 -i 58 -a 1 -x {0.0 2.0 23 ------- null}
+ -t 0.512500000000001 -s 1 -d 2 -p cbr -e 500 -c 2 -i 59 -a 2 -x {1.0 2.0 35 ------- null}
- -t 0.512500000000001 -s 1 -d 2 -p cbr -e 500 -c 2 -i 59 -a 2 -x {1.0 2.0 35 ------- null}
h -t 0.512500000000001 -s 1 -d 2 -p cbr -e 500 -c 2 -i 59 -a 2 -x {1.0 2.0 -1 ------- null}
r -t 0.515571428571429 -s 1 -d 2 -p cbr -e 500 -c 2 -i 57 -a 2 -x {1.0 2.0 34 ------- null}
+ -t 0.521428571428572 -s 1 -d 2 -p cbr -e 500 -c 2 -i 60 -a 2 -x {1.0 2.0 36 ------- null}
- -t 0.521428571428572 -s 1 -d 2 -p cbr -e 500 -c 2 -i 60 -a 2 -x {1.0 2.0 36 ------- null}
h -t 0.521428571428572 -s 1 -d 2 -p cbr -e 500 -c 2 -i 60 -a 2 -x {1.0 2.0 -1 ------- null}
r -t 0.524500000000001 -s 1 -d 2 -p cbr -e 500 -c 2 -i 59 -a 2 -x {1.0 2.0 35 ------- null}
+ -t 0.528571428571428 -s 0 -d 2 -p cbr -e 1000 -c 1 -i 61 -a 1 -x {0.0 2.0 24 ------- null}
+ -t 0.530357142857143 -s 1 -d 2 -p cbr -e 500 -c 2 -i 62 -a 2 -x {1.0 2.0 37 ------- null}
- -t 0.530357142857143 -s 1 -d 2 -p cbr -e 500 -c 2 -i 62 -a 2 -x {1.0 2.0 37 ------- null}
h -t 0.530357142857143 -s 1 -d 2 -p cbr -e 500 -c 2 -i 62 -a 2 -x {1.0 2.0 -1 ------- null}
r -t 0.533428571428572 -s 1 -d 2 -p cbr -e 500 -c 2 -i 60 -a 2 -x {1.0 2.0 36 ------- null}
+ -t 0.539285714285715 -s 1 -d 2 -p cbr -e 500 -c 2 -i 63 -a 2 -x {1.0 2.0 38 ------- null}
- -t 0.539285714285715 -s 1 -d 2 -p cbr -e 500 -c 2 -i 63 -a 2 -x {1.0 2.0 38 ------- null}
h -t 0.539285714285715 -s 1 -d 2 -p cbr -e 500 -c 2 -i 63 -a 2 -x {1.0 2.0 -1 ------- null}
r -t 0.542357142857143 -s 1 -d 2 -p cbr -e 500 -c 2 -i 62 -a 2 -x {1.0 2.0 37 ------- null}
+ -t 0.546428571428571 -s 0 -d 2 -p cbr -e 1000 -c 1 -i 64 -a 1 -x {0.0 2.0 25 ------- null}
+ -t 0.548214285714286 -s 1 -d 2 -p cbr -e 500 -c 2 -i 65 -a 2 -x {1.0 2.0 39 ------- null}
- -t 0.548214285714286 -s 1 -d 2 -p cbr -e 500 -c 2 -i 65 -a 2 -x {1.0 2.0 39 ------- null}
h -t 0.548214285714286 -s 1 -d 2 -p cbr -e 500 -c 2 -i 65 -a 2 -x {1.0 2.0 -1 ------- null}
r -t 0.551285714285715 -s 1 -d 2 -p cbr -e 500 -c 2 -i 63 -a 2 -x {1.0 2.0 38 ------- null}
+ -t 0.557142857142858 -s 1 -d 2 -p cbr -e 500 -c 2 -i 66 -a 2 -x {1.0 2.0 40 ------- null}
- -t 0.557142857142858 -s 1 -d 2 -p cbr -e 500 -c 2 -i 66 -a 2 -x {1.0 2.0 40 ------- null}
h -t 0.557142857142858 -s 1 -d 2 -p cbr -e 500 -c 2 -i 66 -a 2 -x {1.0 2.0 -1 ------- null}
r -t 0.560214285714286 -s 1 -d 2 -p cbr -e 500 -c 2 -i 65 -a 2 -x {1.0 2.0 39 ------- null}
+ -t 0.564285714285714 -s 0 -d 2 -p cbr -e 1000 -c 1 -i 67 -a 1 -x {0.0 2.0 26 ------- null}
+ -t 0.566071428571429 -s 1 -d 2 -p cbr -e 500 -c 2 -i 68 -a 2 -x {1.0 2.0 41 ------- null}
- -t 0.566071428571429 -s 1 -d 2 -p cbr -e 500 -c 2 -i 68 -a 2 -x {1.0 2.0 41 ------- null}
h -t 0.566071428571429 -s 1 -d 2 -p cbr -e 500 -c 2 -i 68 -a 2 -x {1.0 2.0 -1 ------- null}
r -t 0.569142857142858 -s 1 -d 2 -p cbr -e 500 -c 2 -i 66 -a 2 -x {1.0 2.0 40 ------- null}
+ -t 0.575 -s 1 -d 2 -p cbr -e 500 -c 2 -i 69 -a 2 -x {1.0 2.0 42 ------- null}
- -t 0.575 -s 1 -d 2 -p cbr -e 500 -c 2 -i 69 -a 2 -x {1.0 2.0 42 ------- null}
h -t 0.575 -s 1 -d 2 -p cbr -e 500 -c 2 -i 69 -a 2 -x {1.0 2.0 -1 ------- null}
r -t 0.578071428571429 -s 1 -d 2 -p cbr -e 500 -c 2 -i 68 -a 2 -x {1.0 2.0 41 ------- null}
- -t 0.58 -s 0 -d 2 -p cbr -e 1000 -c 1 -i 7 -a 1 -x {0.0 2.0 6 ------- null}
h -t 0.58 -s 0 -d 2 -p cbr -e 1000 -c 1 -i 7 -a 1 -x {0.0 2.0 -1 ------- null}
+ -t 0.582142857142857 -s 0 -d 2 -p cbr -e 1000 -c 1 -i 70 -a 1 -x {0.0 2.0 27 ------- null}
+ -t 0.583928571428572 -s 1 -d 2 -p cbr -e 500 -c 2 -i 71 -a 2 -x {1.0 2.0 43 ------- null}
- -t 0.583928571428572 -s 1 -d 2 -p cbr -e 500 -c 2 -i 71 -a 2 -x {1.0 2.0 43 ------- null}
h -t 0.583928571428572 -s 1 -d 2 -p cbr -e 500 -c 2 -i 71 -a 2 -x {1.0 2.0 -1 ------- null}
r -t 0.587 -s 1 -d 2 -p cbr -e 500 -c 2 -i 69 -a 2 -x {1.0 2.0 42 ------- null}
r -t 0.59 -s 0 -d 2 -p cbr -e 1000 -c 1 -i 5 -a 1 -x {0.0 2.0 5 ------- null}
+ -t 0.592857142857143 -s 1 -d 2 -p cbr -e 500 -c 2 -i 72 -a 2 -x {1.0 2.0 44 ------- null}
- -t 0.592857142857143 -s 1 -d 2 -p cbr -e 500 -c 2 -i 72 -a 2 -x {1.0 2.0 44 ------- null}
h -t 0.592857142857143 -s 1 -d 2 -p cbr -e 500 -c 2 -i 72 -a 2 -x {1.0 2.0 -1 ------- null}
r -t 0.595928571428572 -s 1 -d 2 -p cbr -e 500 -c 2 -i 71 -a 2 -x {1.0 2.0 43 ------- null}
+ -t 0.6 -s 0 -d 2 -p cbr -e 1000 -c 1 -i 73 -a 1 -x {0.0 2.0 28 ------- null}
+ -t 0.601785714285715 -s 1 -d 2 -p cbr -e 500 -c 2 -i 74 -a 2 -x {1.0 2.0 45 ------- null}
- -t 0.601785714285715 -s 1 -d 2 -p cbr -e 500 -c 2 -i 74 -a 2 -x {1.0 2.0 45 ------- null}
h -t 0.601785714285715 -s 1 -d 2 -p cbr -e 500 -c 2 -i 74 -a 2 -x {1.0 2.0 -1 ------- null}
r -t 0.604857142857143 -s 1 -d 2 -p cbr -e 500 -c 2 -i 72 -a 2 -x {1.0 2.0 44 ------- null}
+ -t 0.610714285714286 -s 1 -d 2 -p cbr -e 500 -c 2 -i 75 -a 2 -x {1.0 2.0 46 ------- null}
- -t 0.610714285714286 -s 1 -d 2 -p cbr -e 500 -c 2 -i 75 -a 2 -x {1.0 2.0 46 ------- null}
h -t 0.610714285714286 -s 1 -d 2 -p cbr -e 500 -c 2 -i 75 -a 2 -x {1.0 2.0 -1 ------- null}
r -t 0.613785714285715 -s 1 -d 2 -p cbr -e 500 -c 2 -i 74 -a 2 -x {1.0 2.0 45 ------- null}
+ -t 0.617857142857143 -s 0 -d 2 -p cbr -e 1000 -c 1 -i 76 -a 1 -x {0.0 2.0 29 ------- null}
+ -t 0.619642857142857 -s 1 -d 2 -p cbr -e 500 -c 2 -i 77 -a 2 -x {1.0 2.0 47 ------- null}
- -t 0.619642857142857 -s 1 -d 2 -p cbr -e 500 -c 2 -i 77 -a 2 -x {1.0 2.0 47 ------- null}
h -t 0.619642857142857 -s 1 -d 2 -p cbr -e 500 -c 2 -i 77 -a 2 -x {1.0 2.0 -1 ------- null}
r -t 0.622714285714286 -s 1 -d 2 -p cbr -e 500 -c 2 -i 75 -a 2 -x {1.0 2.0 46 ------- null}
+ -t 0.628571428571429 -s 1 -d 2 -p cbr -e 500 -c 2 -i 78 -a 2 -x {1.0 2.0 48 ------- null}
- -t 0.628571428571429 -s 1 -d 2 -p cbr -e 500 -c 2 -i 78 -a 2 -x {1.0 2.0 48 ------- null}
h -t 0.628571428571429 -s 1 -d 2 -p cbr -e 500 -c 2 -i 78 -a 2 -x {1.0 2.0 -1 ------- null}
r -t 0.631642857142857 -s 1 -d 2 -p cbr -e 500 -c 2 -i 77 -a 2 -x {1.0 2.0 47 ------- null}
+ -t 0.635714285714286 -s 0 -d 2 -p cbr -e 1000 -c 1 -i 79 -a 1 -x {0.0 2.0 30 ------- null}
+ -t 0.6375 -s 1 -d 2 -p cbr -e 500 -c 2 -i 80 -a 2 -x {1.0 2.0 49 ------- null}
- -t 0.6375 -s 1 -d 2 -p cbr -e 500 -c 2 -i 80 -a 2 -x {1.0 2.0 49 ------- null}
h -t 0.6375 -s 1 -d 2 -p cbr -e 500 -c 2 -i 80 -a 2 -x {1.0 2.0 -1 ------- null}
r -t 0.640571428571429 -s 1 -d 2 -p cbr -e 500 -c 2 -i 78 -a 2 -x {1.0 2.0 48 ------- null}
+ -t 0.646428571428572 -s 1 -d 2 -p cbr -e 500 -c 2 -i 81 -a 2 -x {1.0 2.0 50 ------- null}
- -t 0.646428571428572 -s 1 -d 2 -p cbr -e 500 -c 2 -i 81 -a 2 -x {1.0 2.0 50 ------- null}
h -t 0.646428571428572 -s 1 -d 2 -p cbr -e 500 -c 2 -i 81 -a 2 -x {1.0 2.0 -1 ------- null}
r -t 0.6495 -s 1 -d 2 -p cbr -e 500 -c 2 -i 80 -a 2 -x {1.0 2.0 49 ------- null}
+ -t 0.653571428571429 -s 0 -d 2 -p cbr -e 1000 -c 1 -i 82 -a 1 -x {0.0 2.0 31 ------- null}
+ -t 0.655357142857143 -s 1 -d 2 -p cbr -e 500 -c 2 -i 83 -a 2 -x {1.0 2.0 51 ------- null}
- -t 0.655357142857143 -s 1 -d 2 -p cbr -e 500 -c 2 -i 83 -a 2 -x {1.0 2.0 51 ------- null}
h -t 0.655357142857143 -s 1 -d 2 -p cbr -e 500 -c 2 -i 83 -a 2 -x {1.0 2.0 -1 ------- null}
r -t 0.658428571428572 -s 1 -d 2 -p cbr -e 500 -c 2 -i 81 -a 2 -x {1.0 2.0 50 ------- null}
- -t 0.66 -s 0 -d 2 -p cbr -e 1000 -c 1 -i 10 -a 1 -x {0.0 2.0 7 ------- null}
h -t 0.66 -s 0 -d 2 -p cbr -e 1000 -c 1 -i 10 -a 1 -x {0.0 2.0 -1 ------- null}
+ -t 0.664285714285714 -s 1 -d 2 -p cbr -e 500 -c 2 -i 84 -a 2 -x {1.0 2.0 52 ------- null}
- -t 0.664285714285714 -s 1 -d 2 -p cbr -e 500 -c 2 -i 84 -a 2 -x {1.0 2.0 52 ------- null}
h -t 0.664285714285714 -s 1 -d 2 -p cbr -e 500 -c 2 -i 84 -a 2 -x {1.0 2.0 -1 ------- null}
r -t 0.667357142857143 -s 1 -d 2 -p cbr -e 500 -c 2 -i 83 -a 2 -x {1.0 2.0 51 ------- null}
r -t 0.67 -s 0 -d 2 -p cbr -e 1000 -c 1 -i 7 -a 1 -x {0.0 2.0 6 ------- null}
+ -t 0.671428571428572 -s 0 -d 2 -p cbr -e 1000 -c 1 -i 85 -a 1 -x {0.0 2.0 32 ------- null}
+ -t 0.673214285714286 -s 1 -d 2 -p cbr -e 500 -c 2 -i 86 -a 2 -x {1.0 2.0 53 ------- null}
- -t 0.673214285714286 -s 1 -d 2 -p cbr -e 500 -c 2 -i 86 -a 2 -x {1.0 2.0 53 ------- null}
h -t 0.673214285714286 -s 1 -d 2 -p cbr -e 500 -c 2 -i 86 -a 2 -x {1.0 2.0 -1 ------- null}
r -t 0.676285714285714 -s 1 -d 2 -p cbr -e 500 -c 2 -i 84 -a 2 -x {1.0 2.0 52 ------- null}
+ -t 0.682142857142857 -s 1 -d 2 -p cbr -e 500 -c 2 -i 87 -a 2 -x {1.0 2.0 54 ------- null}
- -t 0.682142857142857 -s 1 -d 2 -p cbr -e 500 -c 2 -i 87 -a 2 -x {1.0 2.0 54 ------- null}
h -t 0.682142857142857 -s 1 -d 2 -p cbr -e 500 -c 2 -i 87 -a 2 -x {1.0 2.0 -1 ------- null}
r -t 0.685214285714286 -s 1 -d 2 -p cbr -e 500 -c 2 -i 86 -a 2 -x {1.0 2.0 53 ------- null}
+ -t 0.689285714285715 -s 0 -d 2 -p cbr -e 1000 -c 1 -i 88 -a 1 -x {0.0 2.0 33 ------- null}
+ -t 0.691071428571429 -s 1 -d 2 -p cbr -e 500 -c 2 -i 89 -a 2 -x {1.0 2.0 55 ------- null}
- -t 0.691071428571429 -s 1 -d 2 -p cbr -e 500 -c 2 -i 89 -a 2 -x {1.0 2.0 55 ------- null}
h -t 0.691071428571429 -s 1 -d 2 -p cbr -e 500 -c 2 -i 89 -a 2 -x {1.0 2.0 -1 ------- null}
r -t 0.694142857142857 -s 1 -d 2 -p cbr -e 500 -c 2 -i 87 -a 2 -x {1.0 2.0 54 ------- null}
+ -t 0.7 -s 1 -d 2 -p cbr -e 500 -c 2 -i 90 -a 2 -x {1.0 2.0 56 ------- null}
- -t 0.7 -s 1 -d 2 -p cbr -e 500 -c 2 -i 90 -a 2 -x {1.0 2.0 56 ------- null}
h -t 0.7 -s 1 -d 2 -p cbr -e 500 -c 2 -i 90 -a 2 -x {1.0 2.0 -1 ------- null}
r -t 0.703071428571429 -s 1 -d 2 -p cbr -e 500 -c 2 -i 89 -a 2 -x {1.0 2.0 55 ------- null}
+ -t 0.707142857142858 -s 0 -d 2 -p cbr -e 1000 -c 1 -i 91 -a 1 -x {0.0 2.0 34 ------- null}
+ -t 0.708928571428571 -s 1 -d 2 -p cbr -e 500 -c 2 -i 92 -a 2 -x {1.0 2.0 57 ------- null}
- -t 0.708928571428571 -s 1 -d 2 -p cbr -e 500 -c 2 -i 92 -a 2 -x {1.0 2.0 57 ------- null}
h -t 0.708928571428571 -s 1 -d 2 -p cbr -e 500 -c 2 -i 92 -a 2 -x {1.0 2.0 -1 ------- null}
r -t 0.712 -s 1 -d 2 -p cbr -e 500 -c 2 -i 90 -a 2 -x {1.0 2.0 56 ------- null}
+ -t 0.717857142857143 -s 1 -d 2 -p cbr -e 500 -c 2 -i 93 -a 2 -x {1.0 2.0 58 ------- null}
- -t 0.717857142857143 -s 1 -d 2 -p cbr -e 500 -c 2 -i 93 -a 2 -x {1.0 2.0 58 ------- null}
h -t 0.717857142857143 -s 1 -d 2 -p cbr -e 500 -c 2 -i 93 -a 2 -x {1.0 2.0 -1 ------- null}
r -t 0.720928571428571 -s 1 -d 2 -p cbr -e 500 -c 2 -i 92 -a 2 -x {1.0 2.0 57 ------- null}
+ -t 0.725 -s 0 -d 2 -p cbr -e 1000 -c 1 -i 94 -a 1 -x {0.0 2.0 35 ------- null}
+ -t 0.726785714285714 -s 1 -d 2 -p cbr -e 500 -c 2 -i 95 -a 2 -x {1.0 2.0 59 ------- null}
- -t 0.726785714285714 -s 1 -d 2 -p cbr -e 500 -c 2 -i 95 -a 2 -x {1.0 2.0 59 ------- null}
h -t 0.726785714285714 -s 1 -d 2 -p cbr -e 500 -c 2 -i 95 -a 2 -x {1.0 2.0 -1 ------- null}
r -t 0.729857142857143 -s 1 -d 2 -p cbr -e 500 -c 2 -i 93 -a 2 -x {1.0 2.0 58 ------- null}
+ -t 0.735714285714286 -s 1 -d 2 -p cbr -e 500 -c 2 -i 96 -a 2 -x {1.0 2.0 60 ------- null}
- -t 0.735714285714286 -s 1 -d 2 -p cbr -e 500 -c 2 -i 96 -a 2 -x {1.0 2.0 60 ------- null}
h -t 0.735714285714286 -s 1 -d 2 -p cbr -e 500 -c 2 -i 96 -a 2 -x {1.0 2.0 -1 ------- null}
r -t 0.738785714285714 -s 1 -d 2 -p cbr -e 500 -c 2 -i 95 -a 2 -x {1.0 2.0 59 ------- null}
- -t 0.74 -s 0 -d 2 -p cbr -e 1000 -c 1 -i 13 -a 1 -x {0.0 2.0 8 ------- null}
h -t 0.74 -s 0 -d 2 -p cbr -e 1000 -c 1 -i 13 -a 1 -x {0.0 2.0 -1 ------- null}
+ -t 0.742857142857143 -s 0 -d 2 -p cbr -e 1000 -c 1 -i 97 -a 1 -x {0.0 2.0 36 ------- null}
+ -t 0.744642857142857 -s 1 -d 2 -p cbr -e 500 -c 2 -i 98 -a 2 -x {1.0 2.0 61 ------- null}
- -t 0.744642857142857 -s 1 -d 2 -p cbr -e 500 -c 2 -i 98 -a 2 -x {1.0 2.0 61 ------- null}
h -t 0.744642857142857 -s 1 -d 2 -p cbr -e 500 -c 2 -i 98 -a 2 -x {1.0 2.0 -1 ------- null}
r -t 0.747714285714286 -s 1 -d 2 -p cbr -e 500 -c 2 -i 96 -a 2 -x {1.0 2.0 60 ------- null}
r -t 0.75 -s 0 -d 2 -p cbr -e 1000 -c 1 -i 10 -a 1 -x {0.0 2.0 7 ------- null}
+ -t 0.753571428571428 -s 1 -d 2 -p cbr -e 500 -c 2 -i 99 -a 2 -x {1.0 2.0 62 ------- null}
- -t 0.753571428571428 -s 1 -d 2 -p cbr -e 500 -c 2 -i 99 -a 2 -x {1.0 2.0 62 ------- null}
h -t 0.753571428571428 -s 1 -d 2 -p cbr -e 500 -c 2 -i 99 -a 2 -x {1.0 2.0 -1 ------- null}
r -t 0.756642857142857 -s 1 -d 2 -p cbr -e 500 -c 2 -i 98 -a 2 -x {1.0 2.0 61 ------- null}
+ -t 0.760714285714286 -s 0 -d 2 -p cbr -e 1000 -c 1 -i 100 -a 1 -x {0.0 2.0 37 ------- null}
+ -t 0.7625 -s 1 -d 2 -p cbr -e 500 -c 2 -i 101 -a 2 -x {1.0 2.0 63 ------- null}
- -t 0.7625 -s 1 -d 2 -p cbr -e 500 -c 2 -i 101 -a 2 -x {1.0 2.0 63 ------- null}
h -t 0.7625 -s 1 -d 2 -p cbr -e 500 -c 2 -i 101 -a 2 -x {1.0 2.0 -1 ------- null}
r -t 0.765571428571428 -s 1 -d 2 -p cbr -e 500 -c 2 -i 99 -a 2 -x {1.0 2.0 62 ------- null}
+ -t 0.771428571428571 -s 1 -d 2 -p cbr -e 500 -c 2 -i 102 -a 2 -x {1.0 2.0 64 ------- null}
- -t 0.771428571428571 -s 1 -d 2 -p cbr -e 500 -c 2 -i 102 -a 2 -x {1.0 2.0 64 ------- null}
h -t 0.771428571428571 -s 1 -d 2 -p cbr -e 500 -c 2 -i 102 -a 2 -x {1.0 2.0 -1 ------- null}
r -t 0.7745 -s 1 -d 2 -p cbr -e 500 -c 2 -i 101 -a 2 -x {1.0 2.0 63 ------- null}
+ -t 0.778571428571429 -s 0 -d 2 -p cbr -e 1000 -c 1 -i 103 -a 1 -x {0.0 2.0 38 ------- null}
+ -t 0.780357142857143 -s 1 -d 2 -p cbr -e 500 -c 2 -i 104 -a 2 -x {1.0 2.0 65 ------- null}
- -t 0.780357142857143 -s 1 -d 2 -p cbr -e 500 -c 2 -i 104 -a 2 -x {1.0 2.0 65 ------- null}
h -t 0.780357142857143 -s 1 -d 2 -p cbr -e 500 -c 2 -i 104 -a 2 -x {1.0 2.0 -1 ------- null}
r -t 0.783428571428571 -s 1 -d 2 -p cbr -e 500 -c 2 -i 102 -a 2 -x {1.0 2.0 64 ------- null}
+ -t 0.789285714285714 -s 1 -d 2 -p cbr -e 500 -c 2 -i 105 -a 2 -x {1.0 2.0 66 ------- null}